 Gaussian 16, Revision C.01,
 Gaussian 16:  ES64L-G16RevC.01  3-Jul-2019

 ---------------------------------------------------------------
 # PM6 Freq scf(tight,maxcycle=9999) opt(calcall,maxcycles=9999)
 ---------------------------------------------------------------

 -------------------
 Title Card Required
 -------------------
 Symbolic Z-matrix:
 Charge =  0 Multiplicity = 1

 SCF Done:  E(RPM6) = -0.185208492241     A.U. after   24 cycles
 SCF Done:  E(RPM6) = -0.226104630663     A.U. after   17 cycles
 SCF Done:  E(RPM6) = -0.243459363095     A.U. after   17 cycles
 SCF Done:  E(RPM6) = -0.248857125774     A.U. after   18 cycles
 SCF Done:  E(RPM6) = -0.252459018122     A.U. after   18 cycles
 SCF Done:  E(RPM6) = -0.251493804713     A.U. after   17 cycles
 SCF Done:  E(RPM6) = -0.253566304805     A.U. after   16 cycles
 SCF Done:  E(RPM6) = -0.254309941920     A.U. after   15 cycles
 SCF Done:  E(RPM6) = -0.254253208299     A.U. after   18 cycles
 SCF Done:  E(RPM6) = -0.254649007715     A.U. after   16 cycles
 SCF Done:  E(RPM6) = -0.254679768254     A.U. after   14 cycles
 SCF Done:  E(RPM6) = -0.254681356193     A.U. after   14 cycles
 SCF Done:  E(RPM6) = -0.254682179742     A.U. after   13 cycles
 SCF Done:  E(RPM6) = -0.254682210588     A.U. after    9 cycles
 SCF Done:  E(RPM6) = -0.254682273426     A.U. after   12 cycles
 Optimization completed.
    -- Stationary point found.
 Normal termination of Gaussian 16 at Mon Apr 22 15:57:56 2024.

 -------------------------------------------------------------
 #N Geom=AllCheck Guess=TCheck SCRF=Check GenChk RPM6/ZDO Freq
 -------------------------------------------------------------

 Structure from the checkpoint file:  "/home/A23321P/work/myGaussian/nanoMoS/mols/Gau-459958.chk"
 -------------------
 Title Card Required
 -------------------
 Charge =  0 Multiplicity = 1

                         Standard orientation:
 ---------------------------------------------------------------------
 Center     Atomic      Atomic             Coordinates (Angstroms)
 Number     Number       Type             X           Y           Z
 ---------------------------------------------------------------------
      1          6           0      -11.220721    0.563579    0.007226
      2          6           0       -9.824262    1.181572    0.009696
      3          6           0       -8.727614    0.107172    0.003311
      4          6           0       -7.326884    0.733701    0.005817
      5          6           0       -6.231653   -0.341362   -0.000574
      6          6           0       -4.830759    0.285324    0.001929
      7          6           0       -3.735667   -0.789860   -0.004464
      8          6           0       -2.335099   -0.162546   -0.001951
      9          6           0       -1.240094   -1.237862   -0.008349
     10          6           0        0.158197   -0.607781   -0.005796
     11          6           0        1.256672   -1.683847   -0.012227
     12          6           0        2.618127   -1.048518   -0.009615
     13          6           0        3.256843   -0.738135   -1.222783
     14          6           0        4.519199   -0.146307   -1.218154
     15          6           0        5.156110    0.143773   -0.004354
     16          6           0        4.520421   -0.159808    1.206958
     17          6           0        3.258077   -0.750999    1.206504
     18         16           0        6.705582    0.863046   -0.000797
     19          8           0        6.974295    1.553842   -1.232846
     20          8           0        7.680327   -0.518944   -0.025592
     21          8           0        7.020328    1.478934    1.264776
     22          1           0      -11.383818   -0.069181    0.887015
     23          1           0      -11.384860   -0.059751   -0.879079
     24          1           0      -11.996247    1.337637    0.011811
     25          1           0       -9.706385    1.834384    0.896687
     26          1           0       -9.707434    1.843808   -0.870424
     27          1           0       -8.848207   -0.545644   -0.882440
     28          1           0       -8.847157   -0.555066    0.882181
     29          1           0       -7.208434    1.386477    0.892114
     30          1           0       -7.209491    1.395886   -0.873618
     31          1           0       -6.350970   -0.993937   -0.886904
     32          1           0       -6.349916   -1.003372    0.878868
     33          1           0       -4.712766    0.938309    0.888206
     34          1           0       -4.713826    0.947708   -0.877494
     35          1           0       -3.855223   -1.442354   -0.890900
     36          1           0       -3.854177   -1.451808    0.875068
     37          1           0       -2.217783    0.490767    0.884392
     38          1           0       -2.218838    0.500163   -0.881443
     39          1           0       -1.360266   -1.890439   -0.894880
     40          1           0       -1.359244   -1.899942    0.871233
     41          1           0        0.279068    0.045096    0.881233
     42          1           0        0.278022    0.054518   -0.885981
     43          1           0        1.134140   -2.343343   -0.896503
     44          1           0        1.135146   -2.352929    0.864920
     45          1           0        2.764604   -0.958655   -2.169119
     46          1           0        5.010116    0.097456   -2.167990
     47          1           0        5.012436    0.073436    2.158750
     48          1           0        2.766268   -0.981327    2.150667
     49          1           0        8.590975   -0.405856    0.276649
 ---------------------------------------------------------------------

 SCF Done:  E(RPM6) = -0.254682273425     A.U. after    2 cycles

 The electronic state is 1-A.
 Alpha  occ. eigenvalues --   -1.17692  -1.12293  -1.07848  -1.06438  -1.06125
 Alpha  occ. eigenvalues --   -1.04730  -1.03517  -1.00084  -0.97981  -0.96049
 Alpha  occ. eigenvalues --   -0.91686  -0.86914  -0.82117  -0.81365  -0.78440
 Alpha  occ. eigenvalues --   -0.76554  -0.75663  -0.74992  -0.73555  -0.73103
 Alpha  occ. eigenvalues --   -0.66452  -0.63355  -0.62843  -0.61361  -0.59646
 Alpha  occ. eigenvalues --   -0.59612  -0.57128  -0.56322  -0.55261  -0.54860
 Alpha  occ. eigenvalues --   -0.54758  -0.54336  -0.53619  -0.53058  -0.52823
 Alpha  occ. eigenvalues --   -0.51069  -0.50642  -0.50506  -0.49067  -0.48031
 Alpha  occ. eigenvalues --   -0.47900  -0.46765  -0.46382  -0.46173  -0.45400
 Alpha  occ. eigenvalues --   -0.45081  -0.44934  -0.44360  -0.43876  -0.43426
 Alpha  occ. eigenvalues --   -0.43359  -0.43001  -0.42868  -0.42458  -0.42261
 Alpha  occ. eigenvalues --   -0.41457  -0.40883  -0.40770  -0.38186  -0.38064
 Alpha virt. eigenvalues --   -0.02711  -0.00932   0.01196   0.06468   0.10373
 Alpha virt. eigenvalues --    0.11606   0.11857   0.12969   0.13341   0.13832
 Alpha virt. eigenvalues --    0.14393   0.14479   0.14783   0.15291   0.15597

 Mulliken charges:
               1
     1  C   -0.464247
     2  C   -0.221208
     3  C   -0.266013
     4  C   -0.264026
     5  C   -0.262483
     6  C   -0.263223
     7  C   -0.262722
     8  C   -0.262400
     9  C   -0.266194
    10  C   -0.238399
    11  C   -0.336884
    12  C    0.205891
    13  C   -0.305894
    14  C    0.078726
    15  C   -0.635940
    16  C    0.075999
    17  C   -0.305653
    18  S    2.483576
    19  O   -0.898692
    20  O   -0.810484
    21  O   -0.920100
    22  H    0.146691
    23  H    0.146700
    24  H    0.144603
    25  H    0.126151
    26  H    0.126164
    27  H    0.132247
    28  H    0.132233
    29  H    0.131617
    30  H    0.131636
    31  H    0.131727
    32  H    0.131706
    33  H    0.132293
    34  H    0.132323
    35  H    0.132199
    36  H    0.132165
    37  H    0.133527
    38  H    0.133582
    39  H    0.134193
    40  H    0.134130
    41  H    0.138159
    42  H    0.138270
    43  H    0.158262
    44  H    0.158135
    45  H    0.172164
    46  H    0.155654
    47  H    0.155007
    48  H    0.171894
    49  H    0.346936
 Sum of Mulliken charges =  -0.00000

 Dipole moment (field-independent basis, Debye):
    X=             -5.1118    Y=             -3.2474    Z=              0.3523  Tot=              6.0663
 N-N= 8.809475977468D+02 E-N=-1.476960390347D+03  KE=-2.088541563565D+02
  Exact polarizability:     200.398      26.723     113.293       1.343      -0.522     141.978
 Approx polarizability:     118.525      20.908      82.754       1.108      -0.626     122.070
 Calling FoFJK, ICntrl=    100127 FMM=F ISym2X=0 I1Cent= 0 IOpClX= 0 NMat=1 NMatS=1 NMatT=0.
 Full mass-weighted force constant matrix:
 Low frequencies ---   -1.1115   -0.4799   -0.0669    0.0521    0.1416    0.3684
 Low frequencies ---    7.7799   13.6987   17.2108
 Diagonal vibrational polarizability:
      159.3412007      83.3545447     276.5078348
 Harmonic frequencies (cm**-1), IR intensities (KM/Mole), Raman scattering

                      1                      2                      3
                      A                      A                      A
 Frequencies --      7.7793                13.6981                17.2108
 Red. masses --      5.2581                 2.0875                 5.7395
 Frc consts  --      0.0002                 0.0002                 0.0010
 IR Inten    --      0.0148                 0.0126                 0.5595

                      4                      5                      6
                      A                      A                      A
 Frequencies --     22.0441                28.1132                40.3452
 Red. masses --      2.6268                 4.9815                 2.2335
 Frc consts  --      0.0008                 0.0023                 0.0021
 IR Inten    --      0.2082                 0.0609                 0.0030

                      7                      8                      9
                      A                      A                      A
 Frequencies --     44.3742                53.0511                69.1822
 Red. masses --      4.8373                 1.9932                 2.0423
 Frc consts  --      0.0056                 0.0033                 0.0058
 IR Inten    --      0.5532                 0.0208                 0.0036

                     10                     11                     12
                      A                      A                      A
 Frequencies --     76.6100                84.2837                86.0437
 Red. masses --      1.3507                 2.0404                 3.3851
 Frc consts  --      0.0047                 0.0085                 0.0148
 IR Inten    --     50.3829                 0.2269                 7.7654

                     13                     14                     15
                      A                      A                      A
 Frequencies --     94.6078               108.6453               112.0829
 Red. masses --      1.9562                 2.0226                 1.9744
 Frc consts  --      0.0103                 0.0141                 0.0146
 IR Inten    --      0.0178                 0.0780                 0.0011

                     16                     17                     18
                      A                      A                      A
 Frequencies --    117.5724               138.1186               156.7028
 Red. masses --      4.3167                 6.1737                 1.1224
 Frc consts  --      0.0352                 0.0694                 0.0162
 IR Inten    --      0.2943                 3.9397                 0.0124

                     19                     20                     21
                      A                      A                      A
 Frequencies --    159.7078               192.4539               247.6943
 Red. masses --      5.0599                 4.0704                 4.3822
 Frc consts  --      0.0760                 0.0888                 0.1584
 IR Inten    --      0.8191                 0.7650                 1.0564

                     22                     23                     24
                      A                      A                      A
 Frequencies --    265.1441               290.1869               312.4879
 Red. masses --      5.2988                 4.5785                 3.6981
 Frc consts  --      0.2195                 0.2272                 0.2128
 IR Inten    --     14.3587                10.0105                11.9547

                     25                     26                     27
                      A                      A                      A
 Frequencies --    343.7699               347.9272               352.3654
 Red. masses --      4.4379                 2.3793                 3.9184
 Frc consts  --      0.3090                 0.1697                 0.2866
 IR Inten    --     19.8283                 1.0478                32.8041

                     28                     29                     30
                      A                      A                      A
 Frequencies --    388.1873               418.4884               434.3007
 Red. masses --      4.0717                 4.2683                 4.5023
 Frc consts  --      0.3615                 0.4404                 0.5003
 IR Inten    --     18.9096                25.2713                49.6750

                     31                     32                     33
                      A                      A                      A
 Frequencies --    437.3922               485.4688               503.7700
 Red. masses --      6.2974                 4.2172                 3.8132
 Frc consts  --      0.7098                 0.5856                 0.5702
 IR Inten    --     36.0746                73.5992                42.8800

                     34                     35                     36
                      A                      A                      A
 Frequencies --    512.2341               575.4659               609.4473
 Red. masses --      4.4718                 3.0721                 7.1680
 Frc consts  --      0.6913                 0.5994                 1.5686
 IR Inten    --    115.2101                78.8191                 0.1094

                     37                     38                     39
                      A                      A                      A
 Frequencies --    672.2602               703.9833               737.4294
 Red. masses --      3.6140                 4.2754                 1.0673
 Frc consts  --      0.9623                 1.2484                 0.3420
 IR Inten    --     88.1102                40.7298               102.9304

                     40                     41                     42
                      A                      A                      A
 Frequencies --    741.8716               753.8942               762.9257
 Red. masses --      1.0860                 1.1200                 9.8979
 Frc consts  --      0.3522                 0.3751                 3.3944
 IR Inten    --      0.0045                17.0905               608.7105

                     43                     44                     45
                      A                      A                      A
 Frequencies --    776.2501               809.6826               851.8714
 Red. masses --      1.1708                 1.2316                 1.2883
 Frc consts  --      0.4156                 0.4757                 0.5508
 IR Inten    --      0.5401                 7.5422                 1.0302

                     46                     47                     48
                      A                      A                      A
 Frequencies --    870.3996               877.0607               898.9502
 Red. masses --      1.8085                 1.2481                 1.3254
 Frc consts  --      0.8072                 0.5657                 0.6310
 IR Inten    --     42.0639                 0.1656                 4.6608

                     49                     50                     51
                      A                      A                      A
 Frequencies --    900.6198               946.9879               955.2334
 Red. masses --      4.3349                 1.3310                 1.4883
 Frc consts  --      2.0716                 0.7033                 0.8001
 IR Inten    --     30.8002                 1.4626                25.2774

                     52                     53                     54
                      A                      A                      A
 Frequencies --    978.5213               981.6595               991.9011
 Red. masses --      1.5479                 1.7816                 1.9250
 Frc consts  --      0.8732                 1.0115                 1.1159
 IR Inten    --      0.0138                29.4168                59.2288

                     55                     56                     57
                      A                      A                      A
 Frequencies --    992.5435              1031.9430              1037.2457
 Red. masses --      1.3007                 1.2309                 3.1702
 Frc consts  --      0.7549                 0.7723                 2.0095
 IR Inten    --      1.8160                 1.9966                39.0435

                     58                     59                     60
                      A                      A                      A
 Frequencies --   1057.8719              1063.8447              1095.0646
 Red. masses --      1.2379                 2.7010                 5.2259
 Frc consts  --      0.8162                 1.8011                 3.6923
 IR Inten    --      2.7411               517.4103                 3.8075

                     61                     62                     63
                      A                      A                      A
 Frequencies --   1099.4637              1113.9778              1123.2102
 Red. masses --      5.7738                 2.0444                 4.1386
 Frc consts  --      4.1122                 1.4948                 3.0762
 IR Inten    --      0.6162                16.2039                 1.9086

                     64                     65                     66
                      A                      A                      A
 Frequencies --   1125.9428              1136.5090              1143.2270
 Red. masses --      1.6931                 4.5000                 1.3976
 Frc consts  --      1.2646                 3.4246                 1.0762
 IR Inten    --      0.9621                 1.4847                10.3116

                     67                     68                     69
                      A                      A                      A
 Frequencies --   1145.9980              1151.8662              1161.2614
 Red. masses --      3.6023                 2.0322                 1.2904
 Frc consts  --      2.7874                 1.5886                 1.0252
 IR Inten    --      9.4884                 2.2753                 8.1587

                     70                     71                     72
                      A                      A                      A
 Frequencies --   1168.9591              1169.1499              1171.3223
 Red. masses --      2.6442                 5.6457                 1.0964
 Frc consts  --      2.1288                 4.5469                 0.8863
 IR Inten    --     32.3244               349.0546                28.1661

                     73                     74                     75
                      A                      A                      A
 Frequencies --   1178.9747              1180.8900              1181.8439
 Red. masses --      2.8923                 1.1624                 1.0736
 Frc consts  --      2.3687                 0.9551                 0.8835
 IR Inten    --     18.9502                 2.3992                 0.1402

                     76                     77                     78
                      A                      A                      A
 Frequencies --   1189.8791              1193.7808              1196.2464
 Red. masses --      1.8611                 2.5023                 1.1045
 Frc consts  --      1.5525                 2.1011                 0.9312
 IR Inten    --     95.8605                62.4682                 0.4244

                     79                     80                     81
                      A                      A                      A
 Frequencies --   1196.9540              1199.7596              1208.0653
 Red. masses --      1.1348                 2.8308                 1.1173
 Frc consts  --      0.9579                 2.4007                 0.9607
 IR Inten    --      2.3015                14.3843                 0.0887

                     82                     83                     84
                      A                      A                      A
 Frequencies --   1208.4533              1225.0127              1246.4019
 Red. masses --      1.1238                 1.0815                 2.0171
 Frc consts  --      0.9670                 0.9562                 1.8462
 IR Inten    --      0.0527                11.5181                36.6355

                     85                     86                     87
                      A                      A                      A
 Frequencies --   1255.0307              1262.8286              1263.2981
 Red. masses --      1.2077                 1.0679                 1.0539
 Frc consts  --      1.1208                 1.0034                 0.9909
 IR Inten    --    225.2581                34.2611                34.4223

                     88                     89                     90
                      A                      A                      A
 Frequencies --   1265.3881              1272.5751              1274.6984
 Red. masses --      1.1721                 1.0865                 1.0665
 Frc consts  --      1.1058                 1.0367                 1.0210
 IR Inten    --      8.7831                 0.3781                 2.8040

                     91                     92                     93
                      A                      A                      A
 Frequencies --   1275.4552              1276.9392              1277.3784
 Red. masses --      1.0540                 1.0556                 1.0890
 Frc consts  --      1.0103                 1.0141                 1.0469
 IR Inten    --      0.1695                 6.1333                 1.4053

                     94                     95                     96
                      A                      A                      A
 Frequencies --   1280.4458              1283.9285              1287.6800
 Red. masses --      1.1015                 1.1103                 1.1081
 Frc consts  --      1.0640                 1.0784                 1.0826
 IR Inten    --     23.3865                 3.3720               151.1881

                     97                     98                     99
                      A                      A                      A
 Frequencies --   1291.7356              1295.4665              1296.1258
 Red. masses --      1.1363                 1.1938                 1.1673
 Frc consts  --      1.1171                 1.1805                 1.1554
 IR Inten    --     25.0453                 0.7596                 2.2163

                    100                    101                    102
                      A                      A                      A
 Frequencies --   1305.5183              1315.0967              1319.2176
 Red. masses --      1.2740                 1.4286                 1.5076
 Frc consts  --      1.2793                 1.4558                 1.5458
 IR Inten    --      0.7757                 0.0124                32.3208

                    103                    104                    105
                      A                      A                      A
 Frequencies --   1322.2388              1326.5743              1328.9380
 Red. masses --      1.5890                 1.5525                 1.4794
 Frc consts  --      1.6367                 1.6097                 1.5393
 IR Inten    --      5.9438                 0.9076                 1.5892

                    106                    107                    108
                      A                      A                      A
 Frequencies --   1333.5579              1334.7746              1340.3575
 Red. masses --      1.4043                 1.3858                 2.8332
 Frc consts  --      1.4714                 1.4546                 2.9989
 IR Inten    --     21.2738                 0.3758                52.9446

                    109                    110                    111
                      A                      A                      A
 Frequencies --   1344.3429              1467.2606              1516.9208
 Red. masses --      1.2708                 4.6282                 4.3054
 Frc consts  --      1.3532                 5.8705                 5.8370
 IR Inten    --     41.3555                23.1686                 0.4170

                    112                    113                    114
                      A                      A                      A
 Frequencies --   1636.3077              1639.6373              2471.4481
 Red. masses --     10.7437                10.8924                 1.0554
 Frc consts  --     16.9486                17.2531                 3.7982
 IR Inten    --     88.7808               284.2859               434.6108

                    115                    116                    117
                      A                      A                      A
 Frequencies --   2654.8427              2656.5079              2658.9369
 Red. masses --      1.0734                 1.0736                 1.0757
 Frc consts  --      4.4575                 4.4641                 4.4809
 IR Inten    --      0.7890                 0.6114                 0.7986

                    118                    119                    120
                      A                      A                      A
 Frequencies --   2662.6532              2667.5707              2673.1791
 Red. masses --      1.0784                 1.0816                 1.0851
 Frc consts  --      4.5046                 4.5348                 4.5686
 IR Inten    --      1.9687                 2.1411                 5.9797

                    121                    122                    123
                      A                      A                      A
 Frequencies --   2679.2403              2685.3524              2690.8605
 Red. masses --      1.0884                 1.0915                 1.0941
 Frc consts  --      4.6033                 4.6374                 4.6677
 IR Inten    --      4.1760                15.7181                 5.8978

                    124                    125                    126
                      A                      A                      A
 Frequencies --   2695.3722              2697.5351              2703.3256
 Red. masses --      1.0962                 1.0854                 1.0925
 Frc consts  --      4.6922                 4.6536                 4.7042
 IR Inten    --    171.9971                39.7780               116.4531

                    127                    128                    129
                      A                      A                      A
 Frequencies --   2717.5596              2719.5142              2732.4509
 Red. masses --      1.0720                 1.0748                 1.0360
 Frc consts  --      4.6645                 4.6833                 4.5575
 IR Inten    --    122.2965                84.4963                 1.1955

                    130                    131                    132
                      A                      A                      A
 Frequencies --   2733.0103              2734.1562              2736.5779
 Red. masses --      1.0352                 1.0386                 1.0424
 Frc consts  --      4.5557                 4.5746                 4.5992
 IR Inten    --      0.3090                 0.5472                 4.8429

                    133                    134                    135
                      A                      A                      A
 Frequencies --   2739.9860              2744.0031              2748.3242
 Red. masses --      1.0464                 1.0503                 1.0540
 Frc consts  --      4.6283                 4.6596                 4.6906
 IR Inten    --      0.9793                10.5873                 2.2582

                    136                    137                    138
                      A                      A                      A
 Frequencies --   2752.5890              2756.1844              2756.2917
 Red. masses --      1.0572                 1.0598                 1.0712
 Frc consts  --      4.7194                 4.7434                 4.7949
 IR Inten    --     19.4235                 3.2582               216.9835

                    139                    140                    141
                      A                      A                      A
 Frequencies --   2758.7972              2760.4142              2790.2901
 Red. masses --      1.0615                 1.0752                 1.0308
 Frc consts  --      4.7601                 4.8272                 4.7285
 IR Inten    --    119.0026                50.9465                22.4678

 - Thermochemistry -
 -------------------
 Temperature   298.150 Kelvin.  Pressure   1.00000 Atm.
 Atom     1 has atomic number  6 and mass  12.00000

 Molecular mass:   312.17592 amu.
 Principal axes and moments of inertia in atomic units:
                           1         2         3
     Eigenvalues --  1506.12167********************
           X            0.99999  -0.00477   0.00015
           Y            0.00477   0.99999  -0.00046
           Z           -0.00015   0.00046   1.00000
 This molecule is an asymmetric top.
 Rotational symmetry number  1.
 Warning -- assumption of classical behavior for rotation
           may cause significant error
 Rotational temperatures (Kelvin)      0.05751     0.00208     0.00207
 Rotational constants (GHZ):           1.19827     0.04343     0.04303
 Zero-point vibrational energy    1030109.2 (Joules/Mol)
                                  246.20201 (Kcal/Mol)
 Warning -- explicit consideration of  36 degrees of freedom as
           vibrations may cause significant error
 Vibrational temperatures:     11.19    19.71    24.76    31.72    40.45
          (Kelvin)             58.05    63.84    76.33    99.54   110.22
                              121.27   123.80   136.12   156.32   161.26
                              169.16   198.72   225.46   229.78   276.90
                              356.38   381.48   417.51   449.60   494.61
                              500.59   506.98   558.51   602.11   624.86
                              629.31   698.48   724.81   736.99   827.97
                              876.86   967.23  1012.87  1061.00  1067.39
                             1084.69  1097.68  1116.85  1164.95  1225.65
                             1252.31  1261.89  1293.39  1295.79  1362.50
                             1374.37  1407.87  1412.39  1427.12  1428.05
                             1484.74  1492.37  1522.04  1530.64  1575.55
                             1581.88  1602.77  1616.05  1619.98  1635.18
                             1644.85  1648.84  1657.28  1670.80  1681.87
                             1682.15  1685.27  1696.28  1699.04  1700.41
                             1711.97  1717.58  1721.13  1722.15  1726.19
                             1738.14  1738.69  1762.52  1793.29  1805.71
                             1816.93  1817.60  1820.61  1830.95  1834.01
                             1835.10  1837.23  1837.86  1842.28  1847.29
                             1852.68  1858.52  1863.89  1864.84  1878.35
                             1892.13  1898.06  1902.41  1908.64  1912.05
                             1918.69  1920.44  1928.48  1934.21  2111.06
                             2182.51  2354.28  2359.07  3555.86  3819.73
                             3822.12  3825.62  3830.96  3838.04  3846.11
                             3854.83  3863.62  3871.55  3878.04  3881.15
                             3889.48  3909.96  3912.77  3931.39  3932.19
                             3933.84  3937.33  3942.23  3948.01  3954.23
                             3960.36  3965.53  3965.69  3969.29  3971.62
                             4014.61

 Zero-point correction=                           0.392348 (Hartree/Particle)
 Thermal correction to Energy=                    0.417971
 Thermal correction to Enthalpy=                  0.418915
 Thermal correction to Gibbs Free Energy=         0.328379
 Sum of electronic and zero-point Energies=              0.137666
 Sum of electronic and thermal Energies=                 0.163288
 Sum of electronic and thermal Enthalpies=               0.164233
 Sum of electronic and thermal Free Energies=            0.073697

                     E (Thermal)             CV                S
                      KCal/Mol        Cal/Mol-Kelvin    Cal/Mol-Kelvin
 Total                  262.281             90.227            190.549
 Electronic               0.000              0.000              0.000
 Translational            0.889              2.981             43.111
 Rotational               0.889              2.981             36.216
 Vibrational            260.503             84.266            111.221
 Vibration     1          0.593              1.987              8.510
 Vibration     2          0.593              1.986              7.386
 Vibration     3          0.593              1.986              6.932
 Vibration     4          0.593              1.985              6.441
 Vibration     5          0.593              1.984              5.958
 Vibration     6          0.594              1.981              5.242
 Vibration     7          0.595              1.980              5.054
 Vibration     8          0.596              1.976              4.700
 Vibration     9          0.598              1.969              4.176
 Vibration    10          0.599              1.965              3.976
 Vibration    11          0.601              1.960              3.789
 Vibration    12          0.601              1.959              3.748
 Vibration    13          0.603              1.953              3.562
 Vibration    14          0.606              1.942              3.293
 Vibration    15          0.607              1.939              3.233
 Vibration    16          0.608              1.935              3.140
 Vibration    17          0.614              1.915              2.830
 Vibration    18          0.620              1.895              2.589
 Vibration    19          0.622              1.892              2.553
 Vibration    20          0.634              1.850              2.204
 Vibration    21          0.661              1.767              1.747
 Vibration    22          0.671              1.737              1.628
 Vibration    23          0.686              1.692              1.473
 Vibration    24          0.701              1.650              1.349
 Vibration    25          0.723              1.588              1.195
 Vibration    26          0.726              1.579              1.176
 Vibration    27          0.729              1.570              1.156
 Vibration    28          0.756              1.495              1.007
 Vibration    29          0.781              1.430              0.897
 Vibration    30          0.795              1.395              0.845
 Vibration    31          0.798              1.389              0.835
 Vibration    32          0.842              1.282              0.695
 Vibration    33          0.859              1.242              0.649
 Vibration    34          0.867              1.223              0.628
 Vibration    35          0.932              1.084              0.494
 Vibration    36          0.968              1.012              0.434

 Optimization completed.
    -- Stationary point found.
 Normal termination of Gaussian 16 at Mon Apr 22 15:57:58 2024.
