 Gaussian 16, Revision C.01,
 Gaussian 16:  ES64L-G16RevC.01  3-Jul-2019

 ---------------------------------------------------------------
 # PM6 Freq scf(tight,maxcycle=9999) opt(calcall,maxcycles=9999)
 ---------------------------------------------------------------

 -------------------
 Title Card Required
 -------------------
 Symbolic Z-matrix:
 Charge =  0 Multiplicity = 1

 SCF Done:  E(RPM6) = -0.137815194129     A.U. after   31 cycles
 SCF Done:  E(RPM6) = -0.232530464742     A.U. after   21 cycles
 SCF Done:  E(RPM6) = -0.280550796453     A.U. after   17 cycles
 SCF Done:  E(RPM6) = -0.342625790898     A.U. after   15 cycles
 SCF Done:  E(RPM6) = -0.341604109181     A.U. after   15 cycles
 SCF Done:  E(RPM6) = -0.330398770099     A.U. after   15 cycles
 SCF Done:  E(RPM6) = -0.331309927090     A.U. after   14 cycles
 SCF Done:  E(RPM6) = -0.342916385979     A.U. after   12 cycles
 SCF Done:  E(RPM6) = -0.343137648581     A.U. after   10 cycles
 SCF Done:  E(RPM6) = -0.343135163241     A.U. after   10 cycles
 SCF Done:  E(RPM6) = -0.488321144041     A.U. after   14 cycles
 SCF Done:  E(RPM6) = -0.488518169271     A.U. after   13 cycles
 SCF Done:  E(RPM6) = -0.487743460168     A.U. after   13 cycles
 SCF Done:  E(RPM6) = -0.488666335329     A.U. after   13 cycles
 SCF Done:  E(RPM6) = -0.489116037953     A.U. after   13 cycles
 SCF Done:  E(RPM6) = -0.489219217016     A.U. after   13 cycles
 SCF Done:  E(RPM6) = -0.489252359799     A.U. after   12 cycles
 SCF Done:  E(RPM6) = -0.489253000703     A.U. after   10 cycles
 SCF Done:  E(RPM6) = -0.489253027721     A.U. after    8 cycles
 Optimization completed.
    -- Stationary point found.
 Normal termination of Gaussian 16 at Wed Apr 24 12:07:25 2024.

 -------------------------------------------------------------
 #N Geom=AllCheck Guess=TCheck SCRF=Check GenChk RPM6/ZDO Freq
 -------------------------------------------------------------

 Structure from the checkpoint file:  "/home/A23321P/work/myGaussian/nanoMoS/mols/Gau-882646.chk"
 -------------------
 Title Card Required
 -------------------
 Charge =  0 Multiplicity = 1

                         Standard orientation:
 ---------------------------------------------------------------------
 Center     Atomic      Atomic             Coordinates (Angstroms)
 Number     Number       Type             X           Y           Z
 ---------------------------------------------------------------------
      1         15           0       -1.690311    0.758900   -0.078966
      2          8           0       -1.863332   -0.433117    1.060042
      3          8           0       -0.580536    1.690746    0.135879
      4          8           0       -1.743380   -0.090295   -1.483760
      5          8           0       -3.210172    1.355162   -0.099532
      6          6           0       -0.629389   -1.055096    1.471650
      7          6           0       -0.240940   -2.163307    0.486785
      8          8           0        0.315102   -1.645588   -0.735254
      9          6           0        1.730501   -1.332886   -0.736761
     10          6           0        2.018138    0.039766   -0.139327
     11          6           0        3.520973    0.344360   -0.161202
     12          6           0        3.815687    1.718604    0.434222
     13          1           0       -0.935173   -0.662880   -1.707079
     14          1           0       -3.903997    0.767091   -0.516425
     15          1           0       -0.898347   -1.476670    2.462769
     16          1           0        0.184725   -0.304162    1.605724
     17          1           0       -1.140660   -2.698472    0.113062
     18          1           0        0.456181   -2.884584    0.946092
     19          1           0        1.946231   -1.368385   -1.823368
     20          1           0        2.280309   -2.141517   -0.226812
     21          1           0        1.625856    0.109894    0.898620
     22          1           0        1.461756    0.834206   -0.686579
     23          1           0        3.899144    0.302512   -1.202139
     24          1           0        4.077467   -0.432178    0.399010
     25          1           0        4.883860    1.955019    0.384517
     26          1           0        3.510053    1.780347    1.485194
     27          1           0        3.275981    2.512369   -0.099296
 ---------------------------------------------------------------------

 SCF Done:  E(RPM6) = -0.489253027721     A.U. after    2 cycles

 The electronic state is 1-A.
 Alpha  occ. eigenvalues --   -1.13996  -1.11853  -1.10524  -1.09099  -1.06136
 Alpha  occ. eigenvalues --   -1.04501  -0.98979  -0.94309  -0.84764  -0.81133
 Alpha  occ. eigenvalues --   -0.77343  -0.75906  -0.71557  -0.69830  -0.65262
 Alpha  occ. eigenvalues --   -0.65039  -0.60487  -0.59813  -0.58192  -0.56637
 Alpha  occ. eigenvalues --   -0.55037  -0.53113  -0.52482  -0.51388  -0.50646
 Alpha  occ. eigenvalues --   -0.49742  -0.48244  -0.46913  -0.46269  -0.45490
 Alpha  occ. eigenvalues --   -0.44414  -0.44203  -0.43354  -0.42743  -0.42352
 Alpha  occ. eigenvalues --   -0.41157  -0.38727
 Alpha virt. eigenvalues --    0.02822   0.04413   0.07050   0.08222   0.10884
 Alpha virt. eigenvalues --    0.12207   0.12569   0.13447   0.15539   0.15887
 Alpha virt. eigenvalues --    0.16506   0.16800   0.17464   0.18349   0.18449

 Mulliken charges:
               1
     1  P    1.801986
     2  O   -0.635499
     3  O   -0.803937
     4  O   -0.749736
     5  O   -0.660985
     6  C   -0.036941
     7  C   -0.062850
     8  O   -0.494202
     9  C    0.002142
    10  C   -0.344733
    11  C   -0.205571
    12  C   -0.462249
    13  H    0.387486
    14  H    0.364753
    15  H    0.154565
    16  H    0.155006
    17  H    0.167802
    18  H    0.132580
    19  H    0.141019
    20  H    0.115566
    21  H    0.150744
    22  H    0.182691
    23  H    0.125954
    24  H    0.121115
    25  H    0.144483
    26  H    0.150006
    27  H    0.158806
 Sum of Mulliken charges =  -0.00000

 Dipole moment (field-independent basis, Debye):
    X=              1.9149    Y=             -4.3126    Z=              0.7239  Tot=              4.7738
 N-N= 5.038452928166D+02 E-N=-8.034669666907D+02  KE=-1.557693949925D+02
  Exact polarizability:      86.099       3.771      70.115       0.142      -0.280      61.184
 Approx polarizability:      62.130       3.886      50.912       0.636      -0.321      47.082
 Calling FoFJK, ICntrl=    100127 FMM=F ISym2X=0 I1Cent= 0 IOpClX= 0 NMat=1 NMatS=1 NMatT=0.
 Full mass-weighted force constant matrix:
 Low frequencies ---   -0.7123   -0.4250   -0.2288    0.0781    0.3470    0.4781
 Low frequencies ---   28.0203   54.7954   62.9906
 Diagonal vibrational polarizability:
       84.4011279      73.9600918     132.0146798
 Harmonic frequencies (cm**-1), IR intensities (KM/Mole), Raman scattering

                      1                      2                      3
                      A                      A                      A
 Frequencies --     28.0203                54.7954                62.9906
 Red. masses --      3.2972                 2.3288                 3.5752
 Frc consts  --      0.0015                 0.0041                 0.0084
 IR Inten    --      0.5041                 0.9427                 3.0370

                      4                      5                      6
                      A                      A                      A
 Frequencies --     68.3705                77.8527               110.2080
 Red. masses --      2.8014                 2.8590                 3.8736
 Frc consts  --      0.0077                 0.0102                 0.0277
 IR Inten    --      0.9241                 1.7191                 6.6768

                      7                      8                      9
                      A                      A                      A
 Frequencies --    114.2628               146.2887               153.2162
 Red. masses --      3.4498                 2.5117                 1.1631
 Frc consts  --      0.0265                 0.0317                 0.0161
 IR Inten    --      7.4956                21.4440                 0.1646

                     10                     11                     12
                      A                      A                      A
 Frequencies --    187.2881               206.2988               240.2565
 Red. masses --      2.5269                 3.6913                 3.5096
 Frc consts  --      0.0522                 0.0926                 0.1194
 IR Inten    --     28.1335                 0.9388                17.6770

                     13                     14                     15
                      A                      A                      A
 Frequencies --    272.9312               297.2520               328.4186
 Red. masses --      2.9534                 4.7340                 5.9699
 Frc consts  --      0.1296                 0.2464                 0.3794
 IR Inten    --     18.3777                13.5906                57.1964

                     16                     17                     18
                      A                      A                      A
 Frequencies --    345.1307               372.2571               408.3390
 Red. masses --      2.7800                 5.8294                 4.5168
 Frc consts  --      0.1951                 0.4759                 0.4437
 IR Inten    --      8.3633                66.4297                39.7257

                     19                     20                     21
                      A                      A                      A
 Frequencies --    419.6854               449.7106               476.0318
 Red. masses --      3.5480                 2.3819                 1.2418
 Frc consts  --      0.3682                 0.2838                 0.1658
 IR Inten    --     17.6730                25.8738               151.6809

                     22                     23                     24
                      A                      A                      A
 Frequencies --    494.5772               749.5153               755.8753
 Red. masses --      3.2517                 2.5496                 1.5048
 Frc consts  --      0.4686                 0.8439                 0.5066
 IR Inten    --     29.7201                37.0886               101.9356

                     25                     26                     27
                      A                      A                      A
 Frequencies --    826.1742               839.1889               873.2914
 Red. masses --      1.4781                 3.9595                 4.0280
 Frc consts  --      0.5944                 1.6429                 1.8099
 IR Inten    --     59.9225               236.4027               237.5460

                     28                     29                     30
                      A                      A                      A
 Frequencies --    876.8539               923.0282               959.7155
 Red. masses --      3.0228                 1.9393                 1.4401
 Frc consts  --      1.3694                 0.9735                 0.7815
 IR Inten    --    192.0847                53.8802                24.3629

                     31                     32                     33
                      A                      A                      A
 Frequencies --    964.0415               999.1055              1063.3694
 Red. masses --      1.3366                 2.3825                 1.5326
 Frc consts  --      0.7319                 1.4012                 1.0211
 IR Inten    --      3.4208                32.6378                19.0184

                     34                     35                     36
                      A                      A                      A
 Frequencies --   1082.2785              1083.8745              1095.4350
 Red. masses --      1.3399                 1.2511                 3.2123
 Frc consts  --      0.9247                 0.8660                 2.2711
 IR Inten    --    119.5015               182.3809                12.9137

                     37                     38                     39
                      A                      A                      A
 Frequencies --   1117.8851              1138.6557              1141.1862
 Red. masses --      2.0459                 2.6516                 3.0335
 Frc consts  --      1.5064                 2.0256                 2.3276
 IR Inten    --     54.1172                51.5577                47.2960

                     40                     41                     42
                      A                      A                      A
 Frequencies --   1155.6122              1160.9951              1173.0090
 Red. masses --      2.1131                 1.5598                 1.2679
 Frc consts  --      1.6626                 1.2387                 1.0279
 IR Inten    --     26.0987                22.5002                 8.5282

                     43                     44                     45
                      A                      A                      A
 Frequencies --   1179.7651              1182.5454              1191.6503
 Red. masses --      1.9144                 1.1917                 2.1417
 Frc consts  --      1.5699                 0.9819                 1.7919
 IR Inten    --     45.9527                10.3934                 6.7343

                     46                     47                     48
                      A                      A                      A
 Frequencies --   1221.9398              1249.7970              1252.4643
 Red. masses --      1.3636                 1.2370                 1.1342
 Frc consts  --      1.1996                 1.1384                 1.0482
 IR Inten    --     16.7485                95.0353                11.6816

                     49                     50                     51
                      A                      A                      A
 Frequencies --   1258.6333              1258.9559              1259.8163
 Red. masses --      1.1561                 1.1391                 1.0635
 Frc consts  --      1.0790                 1.0637                 0.9945
 IR Inten    --    139.8039                40.5323                48.4348

                     52                     53                     54
                      A                      A                      A
 Frequencies --   1271.6199              1275.9448              1282.0797
 Red. masses --      1.1238                 1.6488                 1.1471
 Frc consts  --      1.0707                 1.5816                 1.1109
 IR Inten    --      8.6692               192.4556                 1.4017

                     55                     56                     57
                      A                      A                      A
 Frequencies --   1290.7935              1294.3536              1305.8869
 Red. masses --      1.2655                 1.2127                 1.6152
 Frc consts  --      1.2423                 1.1971                 1.6229
 IR Inten    --     20.9845                11.1779               175.6334

                     58                     59                     60
                      A                      A                      A
 Frequencies --   1315.3025              1320.7623              1344.8900
 Red. masses --      1.3668                 1.4137                 1.2550
 Frc consts  --      1.3932                 1.4530                 1.3374
 IR Inten    --     12.0416                27.6767                36.3265

                     61                     62                     63
                      A                      A                      A
 Frequencies --   2418.6568              2530.1478              2583.5665
 Red. masses --      1.0493                 1.0489                 1.0787
 Frc consts  --      3.6166                 3.9562                 4.2423
 IR Inten    --    519.3929               386.0928                35.7392

                     64                     65                     66
                      A                      A                      A
 Frequencies --   2637.8869              2659.7937              2665.0430
 Red. masses --      1.0783                 1.0887                 1.0853
 Frc consts  --      4.4210                 4.5380                 4.5417
 IR Inten    --     39.6157                65.2776                17.7649

                     67                     68                     69
                      A                      A                      A
 Frequencies --   2672.3171              2696.4190              2699.7380
 Red. masses --      1.0879                 1.0879                 1.0874
 Frc consts  --      4.5772                 4.6604                 4.6695
 IR Inten    --     55.7152                76.0505                77.2569

                     70                     71                     72
                      A                      A                      A
 Frequencies --   2702.5990              2716.6270              2717.6675
 Red. masses --      1.0563                 1.0435                 1.0403
 Frc consts  --      4.5458                 4.5374                 4.5268
 IR Inten    --     17.1131                46.8171                27.7730

                     73                     74                     75
                      A                      A                      A
 Frequencies --   2729.3679              2743.8672              2790.0163
 Red. masses --      1.0487                 1.0543                 1.0311
 Frc consts  --      4.6030                 4.6768                 4.7289
 IR Inten    --     19.0010                54.0116                22.7786

 - Thermochemistry -
 -------------------
 Temperature   298.150 Kelvin.  Pressure   1.00000 Atm.
 Atom     1 has atomic number 15 and mass  30.97376

 Molecular mass:   198.06571 amu.
 Principal axes and moments of inertia in atomic units:
                           1         2         3
     Eigenvalues --  1530.210833607.734694265.74795
           X            0.99949   0.03192   0.00270
           Y           -0.03190   0.99947  -0.00665
           Z           -0.00291   0.00656   0.99997
 This molecule is an asymmetric top.
 Rotational symmetry number  1.
 Warning -- assumption of classical behavior for rotation
           may cause significant error
 Rotational temperatures (Kelvin)      0.05660     0.02401     0.02030
 Rotational constants (GHZ):           1.17941     0.50024     0.42308
 Zero-point vibrational energy     526441.7 (Joules/Mol)
                                  125.82260 (Kcal/Mol)
 Warning -- explicit consideration of  22 degrees of freedom as
           vibrations may cause significant error
 Vibrational temperatures:     40.32    78.84    90.63    98.37   112.01
          (Kelvin)            158.56   164.40   210.48   220.44   269.47
                              296.82   345.68   392.69   427.68   472.52
                              496.57   535.59   587.51   603.83   647.03
                              684.90   711.59  1078.39  1087.54  1188.68
                             1207.41  1256.47  1261.60  1328.03  1380.82
                             1387.04  1437.49  1529.95  1557.16  1559.45
                             1576.09  1608.39  1638.27  1641.91  1662.67
                             1670.41  1687.70  1697.42  1701.42  1714.52
                             1758.10  1798.18  1802.02  1810.89  1811.36
                             1812.59  1829.58  1835.80  1844.63  1857.16
                             1862.29  1878.88  1892.43  1900.28  1935.00
                             3479.91  3640.32  3717.18  3795.33  3826.85
                             3834.40  3844.87  3879.55  3884.32  3888.44
                             3908.62  3910.12  3926.95  3947.81  4014.21

 Zero-point correction=                           0.200511 (Hartree/Particle)
 Thermal correction to Energy=                    0.216156
 Thermal correction to Enthalpy=                  0.217100
 Thermal correction to Gibbs Free Energy=         0.156444
 Sum of electronic and zero-point Energies=             -0.288742
 Sum of electronic and thermal Energies=                -0.273097
 Sum of electronic and thermal Enthalpies=              -0.272153
 Sum of electronic and thermal Free Energies=           -0.332809

                     E (Thermal)             CV                S
                      KCal/Mol        Cal/Mol-Kelvin    Cal/Mol-Kelvin
 Total                  135.640             55.017            127.660
 Electronic               0.000              0.000              0.000
 Translational            0.889              2.981             41.755
 Rotational               0.889              2.981             31.532
 Vibrational            133.862             49.055             54.373
 Vibration     1          0.593              1.984              5.965
 Vibration     2          0.596              1.976              4.636
 Vibration     3          0.597              1.972              4.361
 Vibration     4          0.598              1.969              4.200
 Vibration     5          0.599              1.964              3.944
 Vibration     6          0.606              1.941              3.265
 Vibration     7          0.607              1.938              3.195
 Vibration     8          0.617              1.907              2.720
 Vibration     9          0.619              1.899              2.632
 Vibration    10          0.632              1.857              2.255
 Vibration    11          0.641              1.831              2.076
 Vibration    12          0.657              1.779              1.801
 Vibration    13          0.676              1.723              1.578
 Vibration    14          0.691              1.679              1.432
 Vibration    15          0.712              1.619              1.268
 Vibration    16          0.724              1.585              1.188
 Vibration    17          0.744              1.529              1.070
 Vibration    18          0.773              1.452              0.933
 Vibration    19          0.782              1.427              0.893
 Vibration    20          0.809              1.362              0.797
 Vibration    21          0.833              1.303              0.721
 Vibration    22          0.850              1.262              0.672

 Optimization completed.
    -- Stationary point found.
 Normal termination of Gaussian 16 at Wed Apr 24 12:07:26 2024.
