 Gaussian 16, Revision C.01,
 Gaussian 16:  ES64L-G16RevC.01  3-Jul-2019

 ---------------------------------------------------------------
 # PM6 Freq scf(tight,maxcycle=9999) opt(calcall,maxcycles=9999)
 ---------------------------------------------------------------

 -------------------
 Title Card Required
 -------------------
 Symbolic Z-matrix:
 Charge =  0 Multiplicity = 1

 SCF Done:  E(RPM6) = -0.550171379491E-01 A.U. after   44 cycles
 SCF Done:  E(RPM6) = -0.125121901386     A.U. after   24 cycles
 SCF Done:  E(RPM6) = -0.207193153662     A.U. after   18 cycles
 SCF Done:  E(RPM6) = -0.281822963685     A.U. after   14 cycles
 SCF Done:  E(RPM6) = -0.327804869804     A.U. after   14 cycles
 SCF Done:  E(RPM6) = -0.384309054209     A.U. after   14 cycles
 SCF Done:  E(RPM6) = -0.407250518791     A.U. after   13 cycles
 SCF Done:  E(RPM6) = -0.408869991671     A.U. after   13 cycles
 SCF Done:  E(RPM6) = -0.409418345114     A.U. after   13 cycles
 SCF Done:  E(RPM6) = -0.409469878642     A.U. after   12 cycles
 SCF Done:  E(RPM6) = -0.409496523606     A.U. after   11 cycles
 SCF Done:  E(RPM6) = -0.409498016222     A.U. after   10 cycles
 SCF Done:  E(RPM6) = -0.409498138417     A.U. after    9 cycles
 SCF Done:  E(RPM6) = -0.409498176362     A.U. after    9 cycles
 Optimization completed.
    -- Stationary point found.
 Normal termination of Gaussian 16 at Wed Apr 24 12:09:29 2024.

 -------------------------------------------------------------
 #N Geom=AllCheck Guess=TCheck SCRF=Check GenChk RPM6/ZDO Freq
 -------------------------------------------------------------

 Structure from the checkpoint file:  "/home/A23321P/work/myGaussian/nanoMoS/mols/Gau-882793.chk"
 -------------------
 Title Card Required
 -------------------
 Charge =  0 Multiplicity = 1

                         Standard orientation:
 ---------------------------------------------------------------------
 Center     Atomic      Atomic             Coordinates (Angstroms)
 Number     Number       Type             X           Y           Z
 ---------------------------------------------------------------------
      1         15           0        0.123870   -0.627048   -0.169082
      2          8           0        0.709350    0.894669   -0.352230
      3          8           0        0.758848   -1.733239   -0.895082
      4          8           0        0.190246   -0.781540    1.485072
      5          6           0        2.126932    1.019243   -0.653051
      6          6           0        2.982176    0.711695    0.562142
      7          8           0       -1.456898   -0.371335   -0.436084
      8          6           0       -2.063670    0.733739    0.319246
      9          6           0       -3.532301    0.627871   -0.039711
     10          1           0        0.488568   -1.650104    1.842212
     11          1           0        2.179267    2.090762   -0.938581
     12          1           0        2.382555    0.390866   -1.528705
     13          1           0        3.201509   -0.358418    0.670856
     14          1           0        2.489619    1.041555    1.490090
     15          1           0        3.947669    1.230174    0.508596
     16          1           0       -1.610429    1.683056   -0.027753
     17          1           0       -1.880939    0.581465    1.400892
     18          1           0       -3.675478    0.675882   -1.129179
     19          1           0       -4.118753    1.431253    0.418799
     20          1           0       -3.952842   -0.334501    0.283829
 ---------------------------------------------------------------------

 SCF Done:  E(RPM6) = -0.409498176362     A.U. after    2 cycles

 The electronic state is 1-A.
 Alpha  occ. eigenvalues --   -1.12957  -1.12039  -1.09441  -1.06010  -0.99766
 Alpha  occ. eigenvalues --   -0.99161  -0.84537  -0.81712  -0.76195  -0.69423
 Alpha  occ. eigenvalues --   -0.68097  -0.62758  -0.60381  -0.58611  -0.56629
 Alpha  occ. eigenvalues --   -0.54996  -0.54230  -0.51673  -0.49673  -0.49307
 Alpha  occ. eigenvalues --   -0.48113  -0.47502  -0.46046  -0.44753  -0.42698
 Alpha  occ. eigenvalues --   -0.42279  -0.41766  -0.40976
 Alpha virt. eigenvalues --    0.02850   0.05457   0.07648   0.12744   0.13169
 Alpha virt. eigenvalues --    0.13530   0.15684   0.16309   0.18223   0.18754
 Alpha virt. eigenvalues --    0.19136   0.19546   0.19826   0.20131   0.20511

 Mulliken charges:
               1
     1  P    1.786757
     2  O   -0.645541
     3  O   -0.816187
     4  O   -0.746065
     5  C    0.083269
     6  C   -0.540675
     7  O   -0.611348
     8  C    0.077252
     9  C   -0.502482
    10  H    0.358972
    11  H    0.137681
    12  H    0.129698
    13  H    0.169255
    14  H    0.183471
    15  H    0.168031
    16  H    0.130229
    17  H    0.129467
    18  H    0.174957
    19  H    0.161233
    20  H    0.172027
 Sum of Mulliken charges =   0.00000

 Dipole moment (field-independent basis, Debye):
    X=              0.2607    Y=              2.6192    Z=              2.1474  Tot=              3.3970
 N-N= 3.228621394031D+02 E-N=-4.890211756888D+02  KE=-1.200875623212D+02
  Exact polarizability:      63.443      -5.155      56.992      -2.691       3.359      45.720
 Approx polarizability:      42.807      -5.330      44.182      -2.960       3.998      34.727
 Calling FoFJK, ICntrl=    100127 FMM=F ISym2X=0 I1Cent= 0 IOpClX= 0 NMat=1 NMatS=1 NMatT=0.
 Full mass-weighted force constant matrix:
 Low frequencies ---   -0.2505   -0.1811   -0.0084    0.5360    0.7791    0.9924
 Low frequencies ---   24.2841   31.4322   57.5151
 Diagonal vibrational polarizability:
       99.4994620      67.2990708     103.2267351
 Harmonic frequencies (cm**-1), IR intensities (KM/Mole), Raman scattering

                      1                      2                      3
                      A                      A                      A
 Frequencies --     24.2840                31.4322                57.5151
 Red. masses --      2.2387                 2.9009                 1.8533
 Frc consts  --      0.0008                 0.0017                 0.0036
 IR Inten    --      0.6173                 0.9982                 2.8130

                      4                      5                      6
                      A                      A                      A
 Frequencies --     60.9315                83.5911               113.4477
 Red. masses --      2.8640                 1.4181                 4.1690
 Frc consts  --      0.0063                 0.0058                 0.0316
 IR Inten    --      1.2152                 0.9091                 2.5050

                      7                      8                      9
                      A                      A                      A
 Frequencies --    143.2818               166.7363               201.9870
 Red. masses --      1.2745                 2.6290                 1.7701
 Frc consts  --      0.0154                 0.0431                 0.0425
 IR Inten    --      0.3204                 0.3116                32.7530

                     10                     11                     12
                      A                      A                      A
 Frequencies --    231.1309               254.4563               283.6041
 Red. masses --      2.0612                 6.1098                 3.8085
 Frc consts  --      0.0649                 0.2331                 0.1805
 IR Inten    --     30.6349                16.4491                20.1606

                     13                     14                     15
                      A                      A                      A
 Frequencies --    360.3855               372.5873               412.2917
 Red. masses --      7.0548                 6.3176                 5.1529
 Frc consts  --      0.5398                 0.5167                 0.5161
 IR Inten    --     92.5947                93.5211                47.9091

                     16                     17                     18
                      A                      A                      A
 Frequencies --    480.5414               744.8893               805.0772
 Red. masses --      4.8574                 5.4886                 3.9245
 Frc consts  --      0.6609                 1.7943                 1.4987
 IR Inten    --     79.9364                50.7062               288.0795

                     19                     20                     21
                      A                      A                      A
 Frequencies --    833.3734               843.6157               857.2767
 Red. masses --      1.1399                 1.9699                 1.9170
 Frc consts  --      0.4664                 0.8260                 0.8301
 IR Inten    --     47.5258               160.5948                96.6418

                     22                     23                     24
                      A                      A                      A
 Frequencies --    949.8506               969.8594              1043.6651
 Red. masses --      2.0409                 3.3904                 1.2300
 Frc consts  --      1.0849                 1.8790                 0.7893
 IR Inten    --     98.5761               273.3457                41.5540

                     25                     26                     27
                      A                      A                      A
 Frequencies --   1079.4639              1096.8581              1103.6773
 Red. masses --      1.4633                 2.6855                 1.6761
 Frc consts  --      1.0046                 1.9036                 1.2029
 IR Inten    --     20.3193               327.1896                32.8994

                     28                     29                     30
                      A                      A                      A
 Frequencies --   1109.1048              1154.1180              1158.0403
 Red. masses --      2.7226                 1.1147                 1.4089
 Frc consts  --      1.9732                 0.8748                 1.1132
 IR Inten    --    134.7821                 3.4074                11.9459

                     31                     32                     33
                      A                      A                      A
 Frequencies --   1165.0302              1170.6987              1235.7455
 Red. masses --      2.2975                 3.0877                 1.0566
 Frc consts  --      1.8373                 2.4933                 0.9506
 IR Inten    --     87.5058                 8.7536                41.5040

                     34                     35                     36
                      A                      A                      A
 Frequencies --   1240.0886              1246.7144              1247.8752
 Red. masses --      1.0565                 1.0608                 1.0709
 Frc consts  --      0.9572                 0.9714                 0.9825
 IR Inten    --     57.5888                53.9611                46.3351

                     37                     38                     39
                      A                      A                      A
 Frequencies --   1264.1659              1276.6827              1281.6024
 Red. masses --      3.0658                 1.2605                 1.1044
 Frc consts  --      2.8867                 1.2105                 1.0688
 IR Inten    --    338.9015                30.5125                 1.4203

                     40                     41                     42
                      A                      A                      A
 Frequencies --   1309.6448              1311.1557              1327.6425
 Red. masses --      1.3626                 1.4090                 1.2131
 Frc consts  --      1.3770                 1.4272                 1.2598
 IR Inten    --     13.0357               107.5467                74.1335

                     43                     44                     45
                      A                      A                      A
 Frequencies --   1331.8461              2517.9639              2645.1227
 Red. masses --      1.1953                 1.0494                 1.0873
 Frc consts  --      1.2492                 3.9202                 4.4821
 IR Inten    --     75.4489               363.8754                13.5605

                     46                     47                     48
                      A                      A                      A
 Frequencies --   2649.2244              2688.8800              2691.3431
 Red. masses --      1.0841                 1.0860                 1.0880
 Frc consts  --      4.4830                 4.6260                 4.6432
 IR Inten    --     14.1992                77.6112                85.2817

                     49                     50                     51
                      A                      A                      A
 Frequencies --   2692.7750              2695.3055              2705.2012
 Red. masses --      1.0886                 1.0674                 1.0643
 Frc consts  --      4.6509                 4.5687                 4.5887
 IR Inten    --    111.7577                27.2073                63.6723

                     52                     53                     54
                      A                      A                      A
 Frequencies --   2716.4673              2787.1620              2788.5325
 Red. masses --      1.0487                 1.0315                 1.0305
 Frc consts  --      4.5595                 4.7209                 4.7210
 IR Inten    --     46.1889                48.5113                35.1734

 - Thermochemistry -
 -------------------
 Temperature   298.150 Kelvin.  Pressure   1.00000 Atm.
 Atom     1 has atomic number 15 and mass  30.97376

 Molecular mass:   154.03950 amu.
 Principal axes and moments of inertia in atomic units:
                           1         2         3
     Eigenvalues --   740.991082095.555192286.30598
           X            0.99999   0.00070   0.00409
           Y           -0.00047   0.99833  -0.05778
           Z           -0.00413   0.05777   0.99832
 This molecule is an asymmetric top.
 Rotational symmetry number  1.
 Warning -- assumption of classical behavior for rotation
           may cause significant error
 Rotational temperatures (Kelvin)      0.11689     0.04133     0.03788
 Rotational constants (GHZ):           2.43558     0.86122     0.78937
 Zero-point vibrational energy     376907.1 (Joules/Mol)
                                   90.08296 (Kcal/Mol)
 Warning -- explicit consideration of  16 degrees of freedom as
           vibrations may cause significant error
 Vibrational temperatures:     34.94    45.22    82.75    87.67   120.27
          (Kelvin)            163.23   206.15   239.90   290.61   332.55
                              366.11   408.04   518.51   536.07   593.20
                              691.39  1071.73  1158.33  1199.04  1213.77
                             1233.43  1366.62  1395.41  1501.60  1553.11
                             1578.13  1587.95  1595.75  1660.52  1666.16
                             1676.22  1684.37  1777.96  1784.21  1793.74
                             1795.41  1818.85  1836.86  1843.94  1884.29
                             1886.46  1910.18  1916.23  3622.79  3805.74
                             3811.64  3868.70  3872.24  3874.30  3877.94
                             3892.18  3908.39  4010.10  4012.08

 Zero-point correction=                           0.143556 (Hartree/Particle)
 Thermal correction to Energy=                    0.156550
 Thermal correction to Enthalpy=                  0.157494
 Thermal correction to Gibbs Free Energy=         0.101938
 Sum of electronic and zero-point Energies=             -0.265942
 Sum of electronic and thermal Energies=                -0.252948
 Sum of electronic and thermal Enthalpies=              -0.252004
 Sum of electronic and thermal Free Energies=           -0.307560

                     E (Thermal)             CV                S
                      KCal/Mol        Cal/Mol-Kelvin    Cal/Mol-Kelvin
 Total                   98.236             42.601            116.928
 Electronic               0.000              0.000              0.000
 Translational            0.889              2.981             41.006
 Rotational               0.889              2.981             29.652
 Vibrational             96.459             36.639             46.270
 Vibration     1          0.593              1.985              6.249
 Vibration     2          0.594              1.983              5.737
 Vibration     3          0.596              1.974              4.541
 Vibration     4          0.597              1.973              4.427
 Vibration     5          0.600              1.960              3.805
 Vibration     6          0.607              1.938              3.209
 Vibration     7          0.616              1.910              2.760
 Vibration     8          0.624              1.883              2.472
 Vibration     9          0.639              1.837              2.115
 Vibration    10          0.653              1.793              1.870
 Vibration    11          0.665              1.755              1.700
 Vibration    12          0.682              1.704              1.512
 Vibration    13          0.735              1.554              1.120
 Vibration    14          0.744              1.528              1.069
 Vibration    15          0.776              1.444              0.919
 Vibration    16          0.837              1.293              0.709

 Optimization completed.
    -- Stationary point found.
 Normal termination of Gaussian 16 at Wed Apr 24 12:09:30 2024.
