 Gaussian 16, Revision C.01,
 Gaussian 16:  ES64L-G16RevC.01  3-Jul-2019

 ---------------------------------------------------------------
 # PM6 Freq scf(tight,maxcycle=9999) opt(calcall,maxcycles=9999)
 ---------------------------------------------------------------

 -------------------
 Title Card Required
 -------------------
 Symbolic Z-matrix:
 Charge =  0 Multiplicity = 1

 SCF Done:  E(RPM6) = -0.223045223817     A.U. after   22 cycles
 SCF Done:  E(RPM6) = -0.261964666400     A.U. after   18 cycles
 SCF Done:  E(RPM6) = -0.275126153032     A.U. after   18 cycles
 SCF Done:  E(RPM6) = -0.295224642942     A.U. after   18 cycles
 SCF Done:  E(RPM6) = -0.299970021095     A.U. after   16 cycles
 SCF Done:  E(RPM6) = -0.148290378079     A.U. after   18 cycles
 SCF Done:  E(RPM6) = -0.278132592101     A.U. after   18 cycles
 SCF Done:  E(RPM6) = -0.287101807764     A.U. after   18 cycles
 SCF Done:  E(RPM6) = -0.295582093479     A.U. after   17 cycles
 SCF Done:  E(RPM6) = -0.301822640204     A.U. after   17 cycles
 SCF Done:  E(RPM6) = -0.309901105713     A.U. after   18 cycles
 SCF Done:  E(RPM6) = -0.314432549193     A.U. after   19 cycles
 SCF Done:  E(RPM6) = -0.318735475961     A.U. after   17 cycles
 SCF Done:  E(RPM6) = -0.319574036897     A.U. after   15 cycles
 SCF Done:  E(RPM6) = -0.319715387719     A.U. after   17 cycles
 SCF Done:  E(RPM6) = -0.319729541098     A.U. after   14 cycles
 SCF Done:  E(RPM6) = -0.319731074573     A.U. after   13 cycles
 SCF Done:  E(RPM6) = -0.319731090747     A.U. after   11 cycles
 Optimization completed.
    -- Stationary point found.
 Normal termination of Gaussian 16 at Mon Apr 22 13:43:56 2024.

 -------------------------------------------------------------
 #N Geom=AllCheck Guess=TCheck SCRF=Check GenChk RPM6/ZDO Freq
 -------------------------------------------------------------

 Structure from the checkpoint file:  "/home/A23321P/work/myGaussian/nanoMoS/mols/Gau-459492.chk"
 -------------------
 Title Card Required
 -------------------
 Charge =  0 Multiplicity = 1

                         Standard orientation:
 ---------------------------------------------------------------------
 Center     Atomic      Atomic             Coordinates (Angstroms)
 Number     Number       Type             X           Y           Z
 ---------------------------------------------------------------------
      1          6           0      -11.537167    0.572149   -0.342386
      2          6           0      -10.133226    0.946451   -0.812383
      3          6           0       -9.051837    0.176829   -0.040836
      4          6           0       -7.643525    0.556693   -0.517233
      5          6           0       -6.563542   -0.213481    0.254650
      6          6           0       -5.155044    0.166561   -0.221740
      7          6           0       -4.075147   -0.603865    0.549989
      8          6           0       -2.666906   -0.222960    0.073665
      9          6           0       -1.586878   -0.993794    0.844847
     10          6           0       -0.180666   -0.609843    0.367988
     11          6           0        0.903374   -1.382118    1.137184
     12          6           0        2.274680   -0.989335    0.659004
     13          6           0        2.943674    0.096215    1.260683
     14          6           0        4.212409    0.456578    0.807993
     15          6           0        4.820526   -0.252479   -0.238769
     16          6           0        4.160380   -1.320919   -0.834217
     17          6           0        2.885386   -1.691942   -0.387197
     18         16           0        6.439397    0.245113   -0.780371
     19          8           0        6.863521   -0.620649   -1.862114
     20          8           0        7.234770    0.199782    0.500564
     21          8           0        6.236945    1.706191   -1.096575
     22         11           0        6.041900    2.095945    1.213512
     23          1           0      -11.679678    0.794554    0.721180
     24          1           0      -11.738623   -0.495874   -0.483168
     25          1           0      -12.301697    1.125982   -0.898594
     26          1           0       -9.977424    2.036440   -0.692440
     27          1           0      -10.036614    0.745089   -1.897277
     28          1           0       -9.210254   -0.912201   -0.160212
     29          1           0       -9.151128    0.377022    1.043246
     30          1           0       -7.487019    1.646088   -0.397793
     31          1           0       -7.546396    0.355741   -1.601645
     32          1           0       -6.720610   -1.302802    0.134344
     33          1           0       -6.661523   -0.013135    1.338980
     34          1           0       -4.998899    1.256028   -0.102396
     35          1           0       -5.058272   -0.034131   -1.306318
     36          1           0       -4.232067   -1.693181    0.428741
     37          1           0       -4.173535   -0.404294    1.634419
     38          1           0       -2.511338    0.866636    0.193138
     39          1           0       -2.570388   -0.422975   -1.011289
     40          1           0       -1.743461   -2.083134    0.721570
     41          1           0       -1.686406   -0.796424    1.929600
     42          1           0       -0.021364    0.479430    0.488824
     43          1           0       -0.079692   -0.808456   -0.717609
     44          1           0        0.747330   -2.473921    1.014569
     45          1           0        0.801115   -1.197483    2.225712
     46          1           0        2.446949    0.631916    2.069257
     47          1           0        4.772563    1.321723    1.272524
     48          1           0        4.635292   -1.875028   -1.653985
     49          1           0        2.371051   -2.527860   -0.858531
 ---------------------------------------------------------------------

 SCF Done:  E(RPM6) = -0.319731090747     A.U. after    2 cycles

 The electronic state is 1-A.
 Alpha  occ. eigenvalues --   -1.15354  -1.10426  -1.07460  -1.05742  -1.03051
 Alpha  occ. eigenvalues --   -1.00786  -0.99254  -0.96447  -0.94978  -0.94188
 Alpha  occ. eigenvalues --   -0.90298  -0.85414  -0.80379  -0.80104  -0.76368
 Alpha  occ. eigenvalues --   -0.76223  -0.75057  -0.73356  -0.73004  -0.69621
 Alpha  occ. eigenvalues --   -0.62667  -0.62400  -0.60800  -0.58894  -0.57953
 Alpha  occ. eigenvalues --   -0.56602  -0.55014  -0.54861  -0.53881  -0.53541
 Alpha  occ. eigenvalues --   -0.53464  -0.52808  -0.52370  -0.50726  -0.50358
 Alpha  occ. eigenvalues --   -0.50073  -0.49929  -0.48221  -0.47481  -0.47417
 Alpha  occ. eigenvalues --   -0.46190  -0.45520  -0.45134  -0.44471  -0.43896
 Alpha  occ. eigenvalues --   -0.43660  -0.43054  -0.42904  -0.42033  -0.41957
 Alpha  occ. eigenvalues --   -0.41346  -0.40890  -0.40849  -0.40655  -0.39276
 Alpha  occ. eigenvalues --   -0.39125  -0.37920  -0.37136  -0.36909  -0.35729
 Alpha virt. eigenvalues --   -0.00522   0.00052   0.02046   0.06967   0.08175
 Alpha virt. eigenvalues --    0.12578   0.13559   0.13621   0.14033   0.14570
 Alpha virt. eigenvalues --    0.15001   0.15385   0.15707   0.16142   0.16207

 Mulliken charges:
               1
     1  C   -0.464228
     2  C   -0.221216
     3  C   -0.266013
     4  C   -0.264030
     5  C   -0.262506
     6  C   -0.263239
     7  C   -0.262869
     8  C   -0.262363
     9  C   -0.266623
    10  C   -0.241471
    11  C   -0.322514
    12  C    0.145142
    13  C   -0.278542
    14  C    0.021004
    15  C   -0.553427
    16  C    0.029330
    17  C   -0.266829
    18  S    2.559124
    19  O   -0.936541
    20  O   -1.016539
    21  O   -1.016744
    22  Na   0.680130
    23  H    0.146522
    24  H    0.146801
    25  H    0.144534
    26  H    0.125928
    27  H    0.126306
    28  H    0.132395
    29  H    0.131979
    30  H    0.131253
    31  H    0.131839
    32  H    0.131925
    33  H    0.131261
    34  H    0.131616
    35  H    0.132633
    36  H    0.132428
    37  H    0.131284
    38  H    0.132097
    39  H    0.134067
    40  H    0.134159
    41  H    0.132014
    42  H    0.135062
    43  H    0.139322
    44  H    0.154066
    45  H    0.150043
    46  H    0.157920
    47  H    0.126520
    48  H    0.163089
    49  H    0.163902
 Sum of Mulliken charges =  -0.00000

 Dipole moment (field-independent basis, Debye):
    X=             -6.9380    Y=              4.0528    Z=              7.2608  Tot=             10.8296
 N-N= 8.798558609589D+02 E-N=-1.476767285475D+03  KE=-2.092715038837D+02
  Exact polarizability:     196.115      14.223     134.546     -18.680      19.886     127.154
 Approx polarizability:     116.905      11.035     108.952     -14.803      23.945     103.337
 Calling FoFJK, ICntrl=    100127 FMM=F ISym2X=0 I1Cent= 0 IOpClX= 0 NMat=1 NMatS=1 NMatT=0.
 Full mass-weighted force constant matrix:
 Low frequencies ---   -1.3103   -0.7055   -0.2357    0.1871    0.3105    0.4761
 Low frequencies ---    7.4550   13.9815   17.1741
 Diagonal vibrational polarizability:
     1136.3979521     224.9485638    1151.0091324
 Harmonic frequencies (cm**-1), IR intensities (KM/Mole), Raman scattering

                      1                      2                      3
                      A                      A                      A
 Frequencies --      7.4529                13.9812                17.1741
 Red. masses --      6.1582                 1.9637                 5.9324
 Frc consts  --      0.0002                 0.0002                 0.0010
 IR Inten    --      3.8920                 0.5984                 1.9897

                      4                      5                      6
                      A                      A                      A
 Frequencies --     21.9967                40.1976                44.5138
 Red. masses --      2.7590                 2.2379                 4.9287
 Frc consts  --      0.0008                 0.0021                 0.0058
 IR Inten    --      1.0736                 0.1590                 1.9604

                      7                      8                      9
                      A                      A                      A
 Frequencies --     52.8737                58.7421                69.4153
 Red. masses --      1.9907                 4.5614                 2.0595
 Frc consts  --      0.0033                 0.0093                 0.0058
 IR Inten    --      0.2446                 2.2821                 0.0406

                     10                     11                     12
                      A                      A                      A
 Frequencies --     84.1537                87.9325                94.6124
 Red. masses --      2.0172                 6.9089                 2.1893
 Frc consts  --      0.0084                 0.0315                 0.0115
 IR Inten    --      0.1594                 7.1420                 0.5631

                     13                     14                     15
                      A                      A                      A
 Frequencies --     95.1326               108.6523               112.1212
 Red. masses --      6.5806                 2.0169                 1.9747
 Frc consts  --      0.0351                 0.0140                 0.0146
 IR Inten    --      3.6994                 0.0358                 0.0011

                     16                     17                     18
                      A                      A                      A
 Frequencies --    119.0032               147.5514               156.6998
 Red. masses --      4.7332                 6.2247                 1.1224
 Frc consts  --      0.0395                 0.0798                 0.0162
 IR Inten    --      0.6011                 2.0650                 0.0120

                     19                     20                     21
                      A                      A                      A
 Frequencies --    161.1781               186.2195               202.4192
 Red. masses --      5.2505                13.6251                 4.4902
 Frc consts  --      0.0804                 0.2784                 0.1084
 IR Inten    --      1.5025                19.4429                 0.6536

                     22                     23                     24
                      A                      A                      A
 Frequencies --    219.1204               253.6578               278.6414
 Red. masses --     16.4042                 5.0400                 4.6526
 Frc consts  --      0.4641                 0.1911                 0.2128
 IR Inten    --     48.9802                 3.1617                 3.7625

                     25                     26                     27
                      A                      A                      A
 Frequencies --    295.6940               324.7314               351.1614
 Red. masses --      5.3786                 4.4580                 5.3030
 Frc consts  --      0.2771                 0.2770                 0.3853
 IR Inten    --      3.9594                 3.5639                 8.3002

                     28                     29                     30
                      A                      A                      A
 Frequencies --    357.7440               377.2949               391.5590
 Red. masses --      2.4618                 3.5474                 4.1890
 Frc consts  --      0.1856                 0.2975                 0.3784
 IR Inten    --      0.1991                21.7999                 7.0635

                     31                     32                     33
                      A                      A                      A
 Frequencies --    421.1828               441.6783               485.6954
 Red. masses --      4.0873                 5.0573                11.8142
 Frc consts  --      0.4272                 0.5813                 1.6420
 IR Inten    --     19.9065                34.5150                89.1695

                     34                     35                     36
                      A                      A                      A
 Frequencies --    491.7043               505.9729               542.2657
 Red. masses --      3.5777                 3.3891                 7.6511
 Frc consts  --      0.5096                 0.5112                 1.3256
 IR Inten    --     13.7419                 7.1488               337.4331

                     37                     38                     39
                      A                      A                      A
 Frequencies --    583.4846               622.3473               672.6854
 Red. masses --      3.2416                 7.0971                 4.5533
 Frc consts  --      0.6502                 1.6196                 1.2140
 IR Inten    --    158.6075                 0.9917               220.4698

                     40                     41                     42
                      A                      A                      A
 Frequencies --    702.6639               737.2554               741.5774
 Red. masses --      3.4887                 1.0672                 1.0860
 Frc consts  --      1.0149                 0.3418                 0.3519
 IR Inten    --     74.3973               102.9478                 0.1416

                     43                     44                     45
                      A                      A                      A
 Frequencies --    753.5661               775.9613               809.5017
 Red. masses --      1.1202                 1.1710                 1.2319
 Frc consts  --      0.3748                 0.4154                 0.4756
 IR Inten    --     16.5055                 0.6029                 7.5962

                     46                     47                     48
                      A                      A                      A
 Frequencies --    851.8056               869.3509               882.0595
 Red. masses --      1.2888                 1.7283                 1.2577
 Frc consts  --      0.5510                 0.7696                 0.5765
 IR Inten    --      1.0605                53.8899                 2.8510

                     49                     50                     51
                      A                      A                      A
 Frequencies --    898.9544               901.1158               927.9633
 Red. masses --      1.3423                 4.5238                16.6917
 Frc consts  --      0.6391                 2.1643                 8.4686
 IR Inten    --      6.4934                48.7258               421.2915

                     52                     53                     54
                      A                      A                      A
 Frequencies --    947.0749               955.2192               971.6577
 Red. masses --      1.3325                 1.4883                 1.7429
 Frc consts  --      0.7042                 0.8001                 0.9695
 IR Inten    --      0.9429                24.9174                17.0313

                     55                     56                     57
                      A                      A                      A
 Frequencies --    979.4313               985.9802               992.5809
 Red. masses --      2.3150                 3.5606                 1.3037
 Frc consts  --      1.3084                 2.0395                 0.7567
 IR Inten    --    216.4512               443.0998                 2.9168

                     58                     59                     60
                      A                      A                      A
 Frequencies --   1031.6673              1042.2183              1055.6694
 Red. masses --      1.2527                 3.7332                 1.3265
 Frc consts  --      0.7856                 2.3892                 0.8710
 IR Inten    --      0.8521                 6.9430                 0.8891

                     61                     62                     63
                      A                      A                      A
 Frequencies --   1095.2011              1099.9622              1106.3782
 Red. masses --      5.2732                 5.8123                 2.1565
 Frc consts  --      3.7266                 4.1434                 1.5552
 IR Inten    --      2.3684                 0.5645                15.4937

                     64                     65                     66
                      A                      A                      A
 Frequencies --   1115.9877              1123.6087              1124.7898
 Red. masses --     16.6600                 4.1838                 1.7645
 Frc consts  --     12.2248                 3.1121                 1.3153
 IR Inten    --    553.0221                 3.1370                 8.3915

                     67                     68                     69
                      A                      A                      A
 Frequencies --   1137.2905              1143.5498              1146.2821
 Red. masses --      4.4089                 1.4222                 3.6538
 Frc consts  --      3.3599                 1.0957                 2.8286
 IR Inten    --      2.5567                 1.5059                 7.4921

                     70                     71                     72
                      A                      A                      A
 Frequencies --   1151.9983              1162.2465              1169.3446
 Red. masses --      2.0274                 1.2563                 2.4752
 Frc consts  --      1.5853                 0.9999                 1.9941
 IR Inten    --      2.5101                 4.2474                 3.3210

                     73                     74                     75
                      A                      A                      A
 Frequencies --   1171.2064              1179.3652              1181.0080
 Red. masses --      1.0438                 2.8906                 1.1532
 Frc consts  --      0.8436                 2.3689                 0.9477
 IR Inten    --      0.2942                13.2418                 0.2337

                     76                     77                     78
                      A                      A                      A
 Frequencies --   1181.7696              1189.3359              1193.2762
 Red. masses --      1.0758                 1.6372                 2.5623
 Frc consts  --      0.8852                 1.3644                 2.1496
 IR Inten    --      0.1643                66.3635                22.5528

                     79                     80                     81
                      A                      A                      A
 Frequencies --   1196.1900              1196.9570              1199.8014
 Red. masses --      1.1076                 1.1321                 2.8447
 Frc consts  --      0.9338                 0.9556                 2.4127
 IR Inten    --      0.6140                 0.6971                12.0279

                     82                     83                     84
                      A                      A                      A
 Frequencies --   1208.0214              1208.3994              1225.2496
 Red. masses --      1.1179                 1.1240                 1.5037
 Frc consts  --      0.9612                 0.9670                 1.3300
 IR Inten    --      0.0776                 0.0386                10.6790

                     85                     86                     87
                      A                      A                      A
 Frequencies --   1247.0364              1255.2855              1262.8774
 Red. masses --      1.2222                 1.1989                 1.0669
 Frc consts  --      1.1199                 1.1130                 1.0025
 IR Inten    --      4.4796               213.4810                33.4240

                     88                     89                     90
                      A                      A                      A
 Frequencies --   1263.3264              1267.6136              1272.7869
 Red. masses --      1.0539                 1.1793                 1.0786
 Frc consts  --      0.9910                 1.1165                 1.0295
 IR Inten    --     34.3435                 5.6765                 0.1260

                     91                     92                     93
                      A                      A                      A
 Frequencies --   1274.9855              1275.6089              1277.2173
 Red. masses --      1.0653                 1.0541                 1.0569
 Frc consts  --      1.0204                 1.0106                 1.0158
 IR Inten    --      2.1250                 0.0617                 4.5948

                     94                     95                     96
                      A                      A                      A
 Frequencies --   1277.7448              1280.8573              1284.2826
 Red. masses --      1.0952                 1.1058                 1.1120
 Frc consts  --      1.0535                 1.0689                 1.0807
 IR Inten    --      1.4981                21.6440                 2.4481

                     97                     98                     99
                      A                      A                      A
 Frequencies --   1287.8743              1291.7558              1296.2412
 Red. masses --      1.1078                 1.1360                 1.1678
 Frc consts  --      1.0826                 1.1168                 1.1561
 IR Inten    --    153.0247                26.2367                 2.7917

                    100                    101                    102
                      A                      A                      A
 Frequencies --   1305.5815              1309.0450              1317.4425
 Red. masses --      1.2763                 1.4918                 1.3794
 Frc consts  --      1.2818                 1.5061                 1.4106
 IR Inten    --      0.2446                 8.0414                22.9400

                    103                    104                    105
                      A                      A                      A
 Frequencies --   1322.3582              1323.2101              1328.0777
 Red. masses --      1.5287                 1.5049                 1.4532
 Frc consts  --      1.5749                 1.5524                 1.5101
 IR Inten    --      6.5988                 1.0601                 8.2437

                    106                    107                    108
                      A                      A                      A
 Frequencies --   1329.4880              1334.1627              1335.0751
 Red. masses --      1.3892                 1.3549                 1.3446
 Frc consts  --      1.4468                 1.4210                 1.4121
 IR Inten    --      1.0057                 5.5797                 0.0453

                    109                    110                    111
                      A                      A                      A
 Frequencies --   1344.3423              1351.4402              1464.7072
 Red. masses --      1.2709                 2.7237                 4.3752
 Frc consts  --      1.3532                 2.9309                 5.5303
 IR Inten    --     40.5589                28.1548                15.2920

                    112                    113                    114
                      A                      A                      A
 Frequencies --   1524.3592              1642.3961              1645.5580
 Red. masses --      3.8761                10.5929                10.6421
 Frc consts  --      5.3066                16.8353                16.9786
 IR Inten    --      2.3642               134.9053                50.7385

                    115                    116                    117
                      A                      A                      A
 Frequencies --   2653.1322              2655.3415              2656.7635
 Red. masses --      1.0678                 1.0729                 1.0738
 Frc consts  --      4.4283                 4.4572                 4.4654
 IR Inten    --      1.8319                 0.3151                 0.4256

                    118                    119                    120
                      A                      A                      A
 Frequencies --   2659.2593              2663.0195              2668.0029
 Red. masses --      1.0758                 1.0784                 1.0816
 Frc consts  --      4.4822                 4.5060                 4.5362
 IR Inten    --      0.5182                 1.4343                 1.4541

                    121                    122                    123
                      A                      A                      A
 Frequencies --   2673.6677              2679.6463              2685.6704
 Red. masses --      1.0851                 1.0884                 1.0915
 Frc consts  --      4.5702                 4.6046                 4.6384
 IR Inten    --      4.8506                 3.2747                14.1251

                    124                    125                    126
                      A                      A                      A
 Frequencies --   2691.0887              2695.4899              2697.5583
 Red. masses --      1.0941                 1.0962                 1.0854
 Frc consts  --      4.6685                 4.6926                 4.6537
 IR Inten    --      4.4985               171.8284                39.7403

                    127                    128                    129
                      A                      A                      A
 Frequencies --   2703.3317              2718.9909              2732.8607
 Red. masses --      1.0925                 1.0732                 1.0351
 Frc consts  --      4.7042                 4.6745                 4.5546
 IR Inten    --    116.5380               111.6025                 0.5199

                    130                    131                    132
                      A                      A                      A
 Frequencies --   2733.1353              2734.4827              2736.9342
 Red. masses --      1.0357                 1.0388                 1.0425
 Frc consts  --      4.5584                 4.5766                 4.6009
 IR Inten    --      0.5217                 0.5381                 4.0544

                    133                    134                    135
                      A                      A                      A
 Frequencies --   2740.3782              2744.4783              2748.8260
 Red. masses --      1.0464                 1.0503                 1.0541
 Frc consts  --      4.6297                 4.6611                 4.6927
 IR Inten    --      0.5832                 7.9094                 0.9217

                    136                    137                    138
                      A                      A                      A
 Frequencies --   2752.5807              2753.1263              2756.4948
 Red. masses --      1.0698                 1.0597                 1.0599
 Frc consts  --      4.7755                 4.7325                 4.7449
 IR Inten    --     88.1117                42.5852                 2.9886

                    139                    140                    141
                      A                      A                      A
 Frequencies --   2758.8309              2759.1339              2790.2888
 Red. masses --      1.0662                 1.0690                 1.0308
 Frc consts  --      4.7814                 4.7946                 4.7285
 IR Inten    --     79.0718               153.1157                22.4505

 - Thermochemistry -
 -------------------
 Temperature   298.150 Kelvin.  Pressure   1.00000 Atm.
 Atom     1 has atomic number  6 and mass  12.00000

 Molecular mass:   334.15786 amu.
 Principal axes and moments of inertia in atomic units:
                           1         2         3
     Eigenvalues --  2105.53065********************
           X            0.99999  -0.00479   0.00234
           Y            0.00497   0.99650  -0.08341
           Z           -0.00194   0.08342   0.99651
 This molecule is an asymmetric top.
 Rotational symmetry number  1.
 Warning -- assumption of classical behavior for rotation
           may cause significant error
 Rotational temperatures (Kelvin)      0.04114     0.00196     0.00194
 Rotational constants (GHZ):           0.85714     0.04076     0.04050
 Zero-point vibrational energy    1013562.3 (Joules/Mol)
                                  242.24721 (Kcal/Mol)
 Warning -- explicit consideration of  37 degrees of freedom as
           vibrations may cause significant error
 Vibrational temperatures:     10.72    20.12    24.71    31.65    57.84
          (Kelvin)             64.05    76.07    84.52    99.87   121.08
                              126.52   136.13   136.87   156.33   161.32
                              171.22   212.29   225.46   231.90   267.93
                              291.24   315.27   364.96   400.90   425.44
                              467.22   505.24   514.71   542.84   563.37
                              605.99   635.48   698.81   707.45   727.98
                              780.20   839.50   895.42   967.84  1010.98
                             1060.75  1066.96  1084.21  1116.44  1164.69
                             1225.56  1250.80  1269.09  1293.39  1296.50
                             1335.13  1362.63  1374.35  1398.00  1409.18
                             1418.61  1428.10  1484.34  1499.52  1518.87
                             1575.75  1582.60  1591.83  1605.66  1616.62
                             1618.32  1636.31  1645.31  1649.24  1657.47
                             1672.21  1682.43  1685.10  1696.84  1699.21
                             1700.30  1711.19  1716.86  1721.05  1722.15
                             1726.25  1738.07  1738.62  1762.86  1794.21
                             1806.08  1817.00  1817.64  1823.81  1831.26
                             1834.42  1835.32  1837.63  1838.39  1842.87
                             1847.80  1852.96  1858.55  1865.00  1878.44
                             1883.42  1895.51  1902.58  1903.80  1910.81
                             1912.84  1919.56  1920.88  1934.21  1944.42
                             2107.39  2193.21  2363.04  2367.59  3817.27
                             3820.44  3822.49  3826.08  3831.49  3838.66
                             3846.81  3855.41  3864.08  3871.88  3878.21
                             3881.18  3889.49  3912.02  3931.98  3932.37
                             3934.31  3937.84  3942.79  3948.69  3954.95
                             3960.35  3961.13  3965.98  3969.34  3969.78
                             4014.60

 Zero-point correction=                           0.386046 (Hartree/Particle)
 Thermal correction to Energy=                    0.412391
 Thermal correction to Enthalpy=                  0.413335
 Thermal correction to Gibbs Free Energy=         0.321911
 Sum of electronic and zero-point Energies=              0.066314
 Sum of electronic and thermal Energies=                 0.092660
 Sum of electronic and thermal Enthalpies=               0.093604
 Sum of electronic and thermal Free Energies=            0.002179

                     E (Thermal)             CV                S
                      KCal/Mol        Cal/Mol-Kelvin    Cal/Mol-Kelvin
 Total                  258.779             92.898            192.419
 Electronic               0.000              0.000              0.000
 Translational            0.889              2.981             43.314
 Rotational               0.889              2.981             36.672
 Vibrational            257.002             86.936            112.433
 Vibration     1          0.593              1.987              8.595
 Vibration     2          0.593              1.986              7.345
 Vibration     3          0.593              1.986              6.937
 Vibration     4          0.593              1.985              6.445
 Vibration     5          0.594              1.981              5.249
 Vibration     6          0.595              1.980              5.047
 Vibration     7          0.596              1.976              4.707
 Vibration     8          0.596              1.974              4.499
 Vibration     9          0.598              1.969              4.170
 Vibration    10          0.601              1.960              3.792
 Vibration    11          0.601              1.958              3.706
 Vibration    12          0.603              1.953              3.562
 Vibration    13          0.603              1.953              3.552
 Vibration    14          0.606              1.942              3.293
 Vibration    15          0.607              1.939              3.232
 Vibration    16          0.609              1.933              3.116
 Vibration    17          0.617              1.905              2.704
 Vibration    18          0.620              1.895              2.589
 Vibration    19          0.622              1.890              2.536
 Vibration    20          0.632              1.859              2.265
 Vibration    21          0.639              1.836              2.111
 Vibration    22          0.647              1.812              1.966
 Vibration    23          0.665              1.757              1.705
 Vibration    24          0.679              1.713              1.542
 Vibration    25          0.690              1.682              1.441
 Vibration    26          0.709              1.626              1.286
 Vibration    27          0.728              1.573              1.161
 Vibration    28          0.733              1.559              1.132
 Vibration    29          0.748              1.519              1.050
 Vibration    30          0.759              1.488              0.994
 Vibration    31          0.784              1.424              0.888
 Vibration    32          0.801              1.379              0.821
 Vibration    33          0.842              1.282              0.695
 Vibration    34          0.847              1.268              0.679
 Vibration    35          0.861              1.237              0.643
 Vibration    36          0.897              1.157              0.560
 Vibration    37          0.940              1.067              0.479

 Optimization completed.
    -- Stationary point found.
 Normal termination of Gaussian 16 at Mon Apr 22 13:43:59 2024.
